VARIABLES="x", "y", "u_new", "v_new", "p_new", "T_new"
ZONE T="1"  DATAPACKING=POINT, NODES=2564, ELEMENTS=4808, ZONETYPE=FETRIANGLE
0.8 0 -0.003597041318293262 0.1810150630828609 1.030058297259921 0.8251256791563699 
1 0 0.01307630247351959 -0.8798536130704773 1.441926442815716 0.07791124812731783 
0.7991777208527442 0.03140157374576634 -0.02616797812147196 0.499314767377287 1.001829065025854 1 
0.7967131372209639 0.06271707796059216 -0.0522642316338268 0.4972609476841366 1.054215636034257 1 
0.7926130043570825 0.09386067902413865 -0.07821723252011555 0.4938441702975688 1.110152719037804 1 
0.7868885604402833 0.1247470144906558 -0.1039558454088798 0.4890738003669027 1.157401528276026 1 
0.779555495773441 0.1552914270615127 -0.1294095225512606 0.4829629131445341 1.210010817756801 1 
0.770633909777092 0.1854101966249687 -0.1545084971874739 0.4755282581475767 1.249172435549032 1 
0.7601482558983208 0.2150207697271805 -0.1791839747726504 0.4667902132486007 1.284066523686612 1 
0.7481272745855603 0.2440419858454805 -0.2033683215379004 0.4567727288213003 1.31688332546245 1 
0.7346039145130205 0.2723942998437284 -0.2269952498697737 0.4455032620941837 1.341113172300377 1 
0.719615242270663 0.3000000000000004 -0.2500000000000003 0.4330127018922191 1.35926477377135 1 
0.7032023407672541 0.3267834210090167 -0.2723195175075139 0.4193352839727118 1.375192384142001 1 
0.685410196624968 0.3526711513754844 -0.293892626146237 0.4045084971874734 1.384780335603839 1 
0.6662875768741821 0.377592234629903 -0.3146601955249192 0.3885729807284851 1.381765707215663 1 
0.6458868952864361 0.4014783638153155 -0.3345653031794296 0.3715724127386967 1.379106061724037 1 
0.624264068711928 0.4242640687119291 -0.3535533905932742 0.3535533905932732 1.366127641089887 1 
0.6014783638153143 0.4458868952864372 -0.3715724127386976 0.3345653031794285 1.349613794902545 1 
0.5775922346299018 0.466287576874183 -0.3885729807284858 0.3146601955249182 1.319600518830851 1 
0.5526711513754831 0.485410196624969 -0.4045084971874742 0.2938926261462359 1.287674326852861 1 
0.5267834210090154 0.5032023407672549 -0.4193352839727124 0.2723195175075129 1.251928971783104 1 
0.4999999999999991 0.5196152422706637 -0.4330127018922197 0.2499999999999993 1.205766423971249 1 
0.472394299843727 0.5346039145130212 -0.4455032620941844 0.2269952498697725 1.155650933246821 1 
0.444041985845479 0.548127274585561 -0.4567727288213008 0.2033683215378992 1.09287284770625 1 
0.4150207697271788 0.5601482558983215 -0.4667902132486013 0.179183974772649 1.030996965505461 1 
0.3854101966249672 0.5706339097770925 -0.4755282581475771 0.1545084971874727 0.9634898275670915 1 
0.3552914270615112 0.5795554957734413 -0.4829629131445345 0.1294095225512593 0.8893832581039018 1 
0.3247470144906541 0.5868885604402837 -0.4890738003669031 0.1039558454088784 0.8098199379251745 1 
0.293860679024137 0.5926130043570829 -0.4938441702975691 0.07821723252011414 0.7234921570282935 1 
0.2627170779605905 0.5967131372209642 -0.4972609476841368 0.05226423163382542 0.6327029264045025 1 
0.2314015737457646 0.5991777208527445 -0.499314767377287 0.02616797812147048 0.5340263677079113 1 
0.1999999999999983 0.6 -0.5 -1.434038073474161e-15 0.4344691337295754 1 
0.1685984262542318 0.5991777208527442 -0.4993147673772868 -0.02616797812147351 0.3315754932157017 1 
0.137282922039406 0.5967131372209638 -0.4972609476841365 -0.05226423163382834 0.2209214939829971 1 
0.1061393209758596 0.5926130043570823 -0.4938441702975686 -0.07821723252011702 0.1102311942762907 1 
0.07525298550934247 0.5868885604402829 -0.4890738003669025 -0.1039558454088813 0.002266308611516554 1 
0.04470857293848543 0.5795554957734403 -0.4829629131445337 -0.1294095225512622 -0.1113115251172297 1 
0.01458980337502958 0.5706339097770915 -0.4755282581475763 -0.1545084971874754 -0.2248043038543782 1 
-0.01502076972718214 0.5601482558983203 -0.4667902132486003 -0.1791839747726518 -0.3355155487835932 1 
-0.04404198584548211 0.5481272745855597 -0.4567727288212997 -0.2033683215379018 -0.445455257229735 1 
-0.07239429984372991 0.5346039145130197 -0.4455032620941831 -0.226995249869775 -0.5536349403169745 1 
-0.1000000000000019 0.519615242270662 -0.4330127018922184 -0.2500000000000016 -0.6564505287889667 1 
-0.126783421009018 0.5032023407672532 -0.419335283972711 -0.272319517507515 -0.7579453987466285 1 
-0.1526711513754855 0.4854101966249672 -0.4045084971874727 -0.293892626146238 -0.8517448444287707 1 
-0.177592234629904 0.4662875768741813 -0.3885729807284845 -0.31466019552492 -0.9389345968367692 1 
-0.2014783638153163 0.4458868952864353 -0.3715724127386961 -0.3345653031794303 -1.018269722388634 1 
-0.2242640687119298 0.4242640687119272 -0.3535533905932727 -0.3535533905932748 -1.09188537866728 1 
-0.2458868952864376 0.4014783638153137 -0.3345653031794281 -0.371572412738698 -1.155573779180547 1 
-0.2662875768741837 0.3775922346299009 -0.3146601955249175 -0.3885729807284865 -1.208598423048115 1 
-0.2854101966249695 0.3526711513754824 -0.2938926261462353 -0.4045084971874746 -1.255282666803486 1 
-0.3032023407672553 0.3267834210090148 -0.2723195175075124 -0.4193352839727128 -1.292330213282497 1 
-0.319615242270664 0.2999999999999986 -0.2499999999999988 -0.43301270189222 -1.318610972062262 1 
-0.3346039145130213 0.2723942998437267 -0.2269952498697723 -0.4455032620941844 -1.333890781868553 1 
-0.3481272745855611 0.2440419858454788 -0.203368321537899 -0.4567727288213009 -1.345554051108504 1 
-0.3601482558983215 0.2150207697271789 -0.1791839747726491 -0.4667902132486013 -1.348559920206022 1 
-0.3706339097770925 0.1854101966249672 -0.1545084971874727 -0.4755282581475771 -1.345089918273908 1 
-0.3795554957734412 0.1552914270615113 -0.1294095225512594 -0.4829629131445344 -1.331422320087161 1 
-0.3868885604402836 0.1247470144906545 -0.1039558454088788 -0.489073800366903 -1.314742544465999 1 
-0.3926130043570829 0.09386067902413726 -0.07821723252011438 -0.4938441702975691 -1.292534591561465 1 
-0.3967131372209641 0.06271707796059091 -0.05226423163382576 -0.4972609476841368 -1.265167041548247 1 
-0.3991777208527443 0.03140157374576522 -0.02616797812147103 -0.499314767377287 -1.237430185601496 1 
-0.4 -9.923352956913091e-16 8.269460797427575e-16 -0.5 -1.207946060644961 1 
-0.3991777208527442 -0.0314015737457672 0.02616797812147267 -0.4993147673772869 -1.177515701095915 1 
-0.3967131372209639 -0.06271707796059316 0.05226423163382762 -0.4972609476841366 -1.146402140606582 1 
-0.3926130043570824 -0.0938606790241395 0.07821723252011625 -0.4938441702975687 -1.114050128174404 1 
-0.3868885604402831 -0.1247470144906565 0.1039558454088804 -0.4890738003669026 -1.083010730256205 1 
-0.3795554957734408 -0.1552914270615132 0.129409522551261 -0.4829629131445339 -1.053235804041534 1 
-0.3706339097770919 -0.1854101966249691 0.1545084971874743 -0.4755282581475767 -1.025609487275671 1 
-0.3601482558983208 -0.2150207697271808 0.1791839747726506 -0.4667902132486006 -0.9985498289655703 1 
-0.3481272745855602 -0.2440419858454808 0.2033683215379007 -0.4567727288213002 -0.9708428052338051 1 
-0.3346039145130202 -0.2723942998437289 0.2269952498697742 -0.4455032620941836 -0.9446121943396409 1 
-0.3196152422706626 -0.300000000000001 0.2500000000000008 -0.4330127018922189 -0.9215797424389 1 
-0.3032023407672538 -0.3267834210090171 0.2723195175075143 -0.4193352839727115 -0.8999065229823787 1 
-0.2854101966249679 -0.3526711513754847 0.2938926261462372 -0.4045084971874732 -0.8779999828286723 1 
-0.2662875768741818 -0.3775922346299034 0.3146601955249194 -0.3885729807284848 -0.856595624461133 1 
-0.2458868952864356 -0.4014783638153159 0.33456530317943 -0.3715724127386964 -0.8358918366236097 1 
-0.2242640687119276 -0.4242640687119294 0.3535533905932745 -0.353553390593273 -0.8153338579985824 1 
-0.2014783638153139 -0.4458868952864375 0.3715724127386979 -0.3345653031794282 -0.7953858812948049 1 
-0.1775922346299014 -0.4662875768741833 0.3885729807284861 -0.3146601955249179 -0.7750737097303972 1 
-0.1526711513754826 -0.4854101966249693 0.4045084971874744 -0.2938926261462355 -0.7536427576163665 1 
-0.1267834210090153 -0.503202340767255 0.4193352839727125 -0.2723195175075128 -0.7316321514552913 1 
-0.09999999999999837 -0.519615242270664 0.4330127018922201 -0.2499999999999987 -0.7087439546127806 1 
-0.07239429984372675 -0.5346039145130214 0.4455032620941845 -0.2269952498697723 -0.6861026943141318 1 
-0.04404198584547858 -0.5481272745855612 0.456772728821301 -0.2033683215378988 -0.6620005061323172 1 
-0.01502076972717892 -0.5601482558983215 0.4667902132486013 -0.1791839747726491 -0.6377523565730948 1 
0.01458980337503299 -0.5706339097770926 0.4755282581475772 -0.1545084971874725 -0.6119004003923861 1 
0.04470857293848868 -0.5795554957734412 0.4829629131445344 -0.1294095225512595 -0.584615831366924 1 
0.0752529855093457 -0.5868885604402837 0.489073800366903 -0.1039558454088786 -0.55698412074925 1 
0.1061393209758624 -0.5926130043570828 0.493844170297569 -0.07821723252011469 -0.5286575149881485 1 
0.1372829220394091 -0.5967131372209641 0.4972609476841368 -0.05226423163382577 -0.4985244303788967 1 
0.1685984262542345 -0.5991777208527443 0.499314767377287 -0.02616797812147127 -0.470445394255705 1 
0.200000000000001 -0.6 0.5 8.326672684688674e-16 -0.4388423299803157 1 
0.2314015737457674 -0.5991777208527442 0.4993147673772869 0.02616797812147282 -0.4076803125875386 1 
0.2627170779605928 -0.5967131372209639 0.4972609476841366 0.05226423163382732 -0.3748251170206185 1 
0.2938606790241395 -0.5926130043570824 0.4938441702975687 0.07821723252011623 -0.3397687475764161 1 
0.3247470144906567 -0.5868885604402831 0.4890738003669026 0.1039558454088806 -0.3066489273295324 1 
0.3552914270615132 -0.5795554957734408 0.4829629131445339 0.129409522551261 -0.2718812701538245 1 
0.3854101966249693 -0.5706339097770918 0.4755282581475765 0.1545084971874744 -0.2351678020190542 1 
0.4150207697271807 -0.5601482558983208 0.4667902132486006 0.1791839747726506 -0.1961827240283107 1 
0.4440419858454808 -0.5481272745855602 0.4567727288213002 0.2033683215379007 -0.1589039009926559 1 
0.4723942998437284 -0.5346039145130205 0.4455032620941838 0.2269952498697737 -0.1202024530939653 1 
0.5000000000000006 -0.5196152422706629 0.433012701892219 0.2500000000000004 -0.0795394787632704 1 
0.5267834210090164 -0.5032023407672542 0.4193352839727119 0.2723195175075137 -0.03787626853247426 1 
0.5526711513754843 -0.4854101966249682 0.4045084971874734 0.2938926261462368 0.004269825482872342 1 
0.5775922346299029 -0.4662875768741821 0.3885729807284851 0.3146601955249191 0.04692311960691879 1 
0.6014783638153151 -0.4458868952864364 0.371572412738697 0.3345653031794292 0.08785114422605481 1 
0.6242640687119287 -0.4242640687119282 0.3535533905932736 0.353553390593274 0.1325240268820061 1 
0.6458868952864365 -0.4014783638153149 0.3345653031794291 0.3715724127386972 0.1795705741987948 1 
0.6662875768741827 -0.3775922346299023 0.3146601955249185 0.3885729807284855 0.2249844522573725 1 
0.6854101966249684 -0.352671151375484 0.2938926261462367 0.4045084971874737 0.2709361239450299 1 
0.7032023407672545 -0.3267834210090162 0.2723195175075134 0.4193352839727121 0.321786847386018 1 
0.719615242270663 -0.3000000000000003 0.2500000000000002 0.4330127018922191 0.3702951455289254 1 
0.7346039145130208 -0.2723942998437281 0.2269952498697734 0.4455032620941839 0.4193573614670235 1 
0.7481272745855603 -0.2440419858454805 0.2033683215379004 0.4567727288213003 0.47867722786183 1 
0.760148255898321 -0.21502076972718 0.17918397477265 0.4667902132486009 0.531875342509994 1 
0.770633909777092 -0.1854101966249686 0.1545084971874738 0.4755282581475767 0.5877156324695986 1 
0.779555495773441 -0.1552914270615124 0.1294095225512603 0.4829629131445342 0.6444323249215852 1 
0.7868885604402833 -0.1247470144906559 0.1039558454088799 0.4890738003669027 0.7053389971758628 1 
0.7926130043570825 -0.09386067902413867 0.07821723252011556 0.4938441702975688 0.7673571878734553 1 
0.7967131372209639 -0.06271707796059257 0.05226423163382714 0.4972609476841366 0.8237137157544413 1 
0.7991777208527442 -0.03140157374576662 0.02616797812147218 0.4993147673772869 0.8860250316325752 1 
0.9995065603657316 0.03141075907812836 0.03141075907812836 -0.9995065603657316 1.707156086850389 0 
0.9980267284282716 0.06279051952931351 0.06279051952931351 -0.9980267284282716 1.745844618962539 0 
0.99556196460308 0.09410831331851453 0.09410831331851453 -0.99556196460308 1.78315329878771 0 
0.9921147013144778 0.1253332335643045 0.1253332335643045 -0.9921147013144779 1.819172465206611 0 
0.9876883405951377 0.1564344650402312 0.1564344650402312 -0.9876883405951378 1.852755212667008 0 
0.9822872507286886 0.187381314585725 0.187381314585725 -0.9822872507286886 1.885248527197636 0 
0.9759167619387473 0.218143241396543 0.218143241396543 -0.9759167619387473 1.915068648954775 0 
0.968583161128631 0.2486898871648553 0.2486898871648553 -0.968583161128631 1.942269641464104 0 
0.960293685676943 0.2789911060392298 0.2789911060392298 -0.960293685676943 1.967856467817345 0 
0.9510565162951534 0.3090169943749481 0.3090169943749481 -0.9510565162951534 1.991541749742526 0 
0.9408807689542252 0.3387379202452921 0.3387379202452921 -0.9408807689542252 2.008119928329239 0 
0.9297764858882511 0.3681245526846788 0.3681245526846788 -0.9297764858882511 2.024404543709394 0 
0.9177546256839808 0.3971478906347815 0.3971478906347815 -0.9177546256839808 2.037440636978291 0 
0.9048270524660191 0.4257792915650735 0.4257792915650735 -0.9048270524660191 2.047056084931099 0 
0.8910065241883673 0.4539904997395477 0.4539904997395477 -0.8910065241883673 2.052705499580396 0 
0.876306680043863 0.4817536741017163 0.4817536741017163 -0.876306680043863 2.057999676829392 0 
0.8607420270039431 0.5090414157503723 0.5090414157503723 -0.8607420270039431 2.056974281985389 0 
0.8443279255020144 0.5358267949789977 0.5358267949789977 -0.8443279255020144 2.054405589973865 0 
0.8270805742745611 0.5620833778521317 0.5620833778521317 -0.8270805742745611 2.0499355544714 0 
0.8090169943749467 0.5877852522924741 0.5877852522924741 -0.8090169943749467 2.041319380677295 0 
0.7901550123756894 0.6129070536529776 0.6129070536529777 -0.7901550123756895 2.029060238146157 0 
0.7705132427757883 0.6374239897486909 0.6374239897486909 -0.7705132427757883 2.014963489162701 0 
0.7501110696304586 0.6613118653236529 0.6613118653236529 -0.7501110696304586 1.998569685254872 0 
0.7289686274214104 0.6845471059286898 0.6845471059286898 -0.7289686274214104 1.97936425265128 0 
0.7071067811865462 0.7071067811865488 0.7071067811865488 -0.7071067811865462 1.957606666434657 0 
0.6845471059286874 0.7289686274214128 0.7289686274214128 -0.6845471059286874 1.934594623538627 0 
0.6613118653236504 0.7501110696304608 0.7501110696304608 -0.6613118653236504 1.908842506446382 0 
0.6374239897486882 0.7705132427757905 0.7705132427757905 -0.6374239897486882 1.880846429243674 0 
0.6129070536529749 0.7901550123756915 0.7901550123756916 -0.612907053652975 1.851323155039972 0 
0.5877852522924715 0.8090169943749487 0.8090169943749487 -0.5877852522924715 1.820651487680282 0 
0.5620833778521288 0.8270805742745631 0.8270805742745631 -0.5620833778521288 1.787933465062742 0 
0.5358267949789947 0.8443279255020163 0.8443279255020164 -0.5358267949789948 1.753672666531884 0 
0.5090414157503693 0.8607420270039449 0.8607420270039449 -0.5090414157503693 1.717970045003237 0 
0.481753674101713 0.8763066800438648 0.8763066800438648 -0.481753674101713 1.68072739302278 0 
0.4539904997395445 0.891006524188369 0.8910065241883691 -0.4539904997395445 1.64248079626058 0 
0.4257792915650702 0.9048270524660207 0.9048270524660207 -0.4257792915650702 1.603126054205372 0 
0.3971478906347779 0.9177546256839823 0.9177546256839824 -0.397147890634778 1.563104801411348 0 
0.3681245526846752 0.9297764858882525 0.9297764858882525 -0.3681245526846752 1.522342269538155 0 
0.3387379202452885 0.9408807689542265 0.9408807689542266 -0.3387379202452885 1.480021415030879 0 
0.3090169943749447 0.9510565162951544 0.9510565162951545 -0.3090169943749447 1.437470355505856 0 
0.2789911060392263 0.960293685676944 0.960293685676944 -0.2789911060392263 1.394423128999206 0 
0.2486898871648517 0.9685831611286319 0.968583161128632 -0.2486898871648517 1.350585199902009 0 
0.2181432413965394 0.9759167619387481 0.9759167619387481 -0.2181432413965394 1.307415856470299 0 
0.1873813145857212 0.9822872507286893 0.9822872507286894 -0.1873813145857212 1.263543548129421 0 
0.1564344650402274 0.9876883405951383 0.9876883405951383 -0.1564344650402274 1.219784717141995 0 
0.1253332335643007 0.9921147013144783 0.9921147013144783 -0.1253332335643007 1.176032863433332 0 
0.09410831331851052 0.9955619646030803 0.9955619646030804 -0.09410831331851054 1.132361132458886 0 
0.06279051952930953 0.9980267284282718 0.9980267284282719 -0.06279051952930954 1.089117821514997 0 
0.03141075907812441 0.9995065603657317 0.9995065603657317 -0.03141075907812441 1.046033480926726 0 
-4.157615153618227e-15 1 1 4.157615153618227e-15 1.002722523102962 0 
-0.03141075907813249 0.9995065603657314 0.9995065603657315 0.0314107590781325 0.9607221426421911 0 
-0.06279051952931761 0.9980267284282713 0.9980267284282713 0.06279051952931761 0.9200433932195989 0 
-0.09410831331851881 0.9955619646030796 0.9955619646030797 0.09410831331851882 0.8793754896194071 0 
-0.1253332335643088 0.9921147013144772 0.9921147013144773 0.1253332335643088 0.8392868115463029 0 
-0.1564344650402354 0.987688340595137 0.987688340595137 0.1564344650402354 0.7996687866171711 0 
-0.1873813145857294 0.9822872507286877 0.9822872507286878 0.1873813145857294 0.7622803439069032 0 
-0.2181432413965473 0.9759167619387463 0.9759167619387463 0.2181432413965473 0.7251968525913906 0 
-0.2486898871648596 0.9685831611286299 0.96858316112863 0.2486898871648596 0.690464777871715 0 
-0.278991106039234 0.9602936856769417 0.9602936856769417 0.278991106039234 0.6554928702351578 0 
-0.3090169943749524 0.951056516295152 0.951056516295152 0.3090169943749524 0.6222598563149073 0 
-0.3387379202452964 0.9408807689542237 0.9408807689542237 0.3387379202452964 0.5900635088328566 0 
-0.3681245526846829 0.9297764858882495 0.9297764858882495 0.3681245526846829 0.5584214307994849 0 
-0.3971478906347858 0.9177546256839789 0.9177546256839789 0.3971478906347858 0.5284269840974202 0 
-0.4257792915650775 0.9048270524660172 0.9048270524660172 0.4257792915650775 0.5003630688832557 0 
-0.4539904997395515 0.8910065241883655 0.8910065241883655 0.4539904997395515 0.4736486563753123 0 
-0.4817536741017201 0.8763066800438609 0.8763066800438609 0.4817536741017201 0.4478248702752458 0 
-0.5090414157503759 0.8607420270039409 0.860742027003941 0.509041415750376 0.4239848827582285 0 
-0.5358267949790013 0.8443279255020121 0.8443279255020121 0.5358267949790013 0.4005038115599427 0 
-0.5620833778521351 0.8270805742745587 0.8270805742745587 0.5620833778521351 0.3792148474764866 0 
-0.5877852522924774 0.8090169943749443 0.8090169943749443 0.5877852522924774 0.3589129131866993 0 
-0.6129070536529805 0.7901550123756873 0.7901550123756873 0.6129070536529805 0.3405889338066358 0 
-0.6374239897486939 0.7705132427757858 0.7705132427757858 0.6374239897486939 0.3233399204207761 0 
-0.6613118653236557 0.7501110696304562 0.7501110696304562 0.6613118653236557 0.3071375540492679 0 
-0.6845471059286926 0.7289686274214078 0.7289686274214079 0.6845471059286927 0.2929844844284131 0 
-0.7071067811865512 0.7071067811865438 0.7071067811865438 0.7071067811865512 0.2796890502143092 0 
-0.728968627421415 0.684547105928685 0.684547105928685 0.728968627421415 0.2681088832653279 0 
-0.7501110696304628 0.6613118653236482 0.6613118653236482 0.7501110696304628 0.2573116605572842 0 
-0.7705132427757925 0.6374239897486857 0.6374239897486857 0.7705132427757925 0.2476520081637561 0 
-0.7901550123756934 0.6129070536529726 0.6129070536529726 0.7901550123756934 0.2392571449005189 0 
-0.8090169943749502 0.5877852522924693 0.5877852522924693 0.8090169943749502 0.2321216180508026 0 
-0.8270805742745647 0.5620833778521265 0.5620833778521265 0.8270805742745647 0.2261460394324105 0 
-0.8443279255020177 0.5358267949789925 0.5358267949789925 0.8443279255020177 0.2211299791854443 0 
-0.860742027003946 0.5090414157503672 0.5090414157503673 0.8607420270039461 0.2174201414090796 0 
-0.8763066800438658 0.4817536741017113 0.4817536741017113 0.8763066800438658 0.2142248813157542 0 
-0.89100652418837 0.4539904997395425 0.4539904997395425 0.8910065241883701 0.2122110631502595 0 
-0.9048270524660215 0.4257792915650685 0.4257792915650686 0.9048270524660216 0.2112472013547358 0 
-0.917754625683983 0.3971478906347761 0.3971478906347762 0.9177546256839831 0.2104179157171349 0 
-0.9297764858882531 0.3681245526846736 0.3681245526846736 0.9297764858882531 0.2109141479978238 0 
-0.940880768954227 0.3387379202452871 0.3387379202452871 0.940880768954227 0.2121051633963571 0 
-0.9510565162951549 0.3090169943749433 0.3090169943749433 0.951056516295155 0.213708074014333 0 
-0.9602936856769444 0.2789911060392248 0.2789911060392248 0.9602936856769444 0.2159856424633724 0 
-0.9685831611286322 0.2486898871648505 0.2486898871648505 0.9685831611286323 0.218629567692553 0 
-0.9759167619387484 0.218143241396538 0.218143241396538 0.9759167619387484 0.2219437199603673 0 
-0.9822872507286895 0.1873813145857202 0.1873813145857202 0.9822872507286895 0.2257216904414938 0 
-0.9876883405951384 0.1564344650402266 0.1564344650402266 0.9876883405951384 0.2298136240014701 0 
-0.9921147013144783 0.1253332335643001 0.1253332335643001 0.9921147013144784 0.2340485343317023 0 
-0.9955619646030804 0.09410831331850993 0.09410831331850993 0.9955619646030804 0.2386359278741323 0 
-0.9980267284282718 0.06279051952930916 0.06279051952930917 0.9980267284282719 0.2434740044039976 0 
-0.9995065603657317 0.03141075907812424 0.03141075907812424 0.9995065603657317 0.2485838674338037 0 
-1 -4.318427418585891e-15 -4.318427418585891e-15 1 0.2539593177942244 0 
-0.9995065603657314 -0.03141075907813243 -0.03141075907813243 0.9995065603657315 0.2590281014523068 0 
-0.9980267284282713 -0.06279051952931733 -0.06279051952931733 0.9980267284282713 0.2642429587617898 0 
-0.9955619646030797 -0.09410831331851853 -0.09410831331851853 0.9955619646030797 0.2694971669235217 0 
-0.9921147013144773 -0.1253332335643083 -0.1253332335643083 0.9921147013144773 0.2746364565087231 0 
-0.9876883405951371 -0.1564344650402347 -0.1564344650402347 0.9876883405951371 0.2799413642329064 0 
-0.9822872507286879 -0.1873813145857287 -0.1873813145857287 0.9822872507286879 0.2851319988577976 0 
-0.9759167619387465 -0.2181432413965464 -0.2181432413965464 0.9759167619387465 0.2900895638333765 0 
-0.9685831611286302 -0.2486898871648585 -0.2486898871648585 0.9685831611286302 0.2950902447216583 0 
-0.9602936856769421 -0.2789911060392327 -0.2789911060392327 0.9602936856769421 0.3000997677905001 0 
-0.9510565162951524 -0.3090169943749511 -0.3090169943749511 0.9510565162951524 0.3050687706012573 0 
-0.9408807689542242 -0.3387379202452949 -0.3387379202452949 0.9408807689542242 0.3096209242513375 0 
-0.9297764858882499 -0.3681245526846816 -0.3681245526846816 0.92977648588825 0.3143263321123054 0 
-0.9177546256839797 -0.3971478906347841 -0.3971478906347841 0.9177546256839797 0.318079152865668 0 
-0.904827052466018 -0.4257792915650759 -0.4257792915650759 0.904827052466018 0.3228583848330731 0 
-0.8910065241883663 -0.4539904997395499 -0.4539904997395499 0.8910065241883663 0.3268894230043024 0 
-0.8763066800438618 -0.4817536741017185 -0.4817536741017185 0.8763066800438618 0.3310266176768165 0 
-0.8607420270039419 -0.5090414157503743 -0.5090414157503743 0.8607420270039419 0.3344976346388745 0 
-0.8443279255020133 -0.5358267949789994 -0.5358267949789994 0.8443279255020133 0.3384996693957088 0 
-0.8270805742745598 -0.5620833778521336 -0.5620833778521336 0.8270805742745598 0.3420044588857132 0 
-0.8090169943749455 -0.5877852522924759 -0.5877852522924759 0.8090169943749455 0.3454546183455586 0 
-0.7901550123756884 -0.612907053652979 -0.612907053652979 0.7901550123756884 0.3488547862390939 0 
-0.770513242775787 -0.6374239897486924 -0.6374239897486924 0.770513242775787 0.3521930228898211 0 
-0.7501110696304574 -0.6613118653236544 -0.6613118653236544 0.7501110696304574 0.3551271380862717 0 
-0.7289686274214093 -0.6845471059286909 -0.6845471059286909 0.7289686274214093 0.3588482693502514 0 
-0.7071067811865451 -0.7071067811865499 -0.7071067811865499 0.7071067811865451 0.3620728528729748 0 
-0.6845471059286863 -0.7289686274214138 -0.7289686274214138 0.6845471059286863 0.3651837467231678 0 
-0.6613118653236496 -0.7501110696304616 -0.7501110696304616 0.6613118653236496 0.3682711131568449 0 
-0.6374239897486875 -0.770513242775791 -0.770513242775791 0.6374239897486875 0.3716153999303793 0 
-0.6129070536529744 -0.790155012375692 -0.790155012375692 0.6129070536529744 0.3752396816984866 0 
-0.5877852522924711 -0.8090169943749489 -0.8090169943749489 0.5877852522924711 0.3783409727727125 0 
-0.5620833778521287 -0.8270805742745632 -0.8270805742745632 0.5620833778521287 0.3824868183463044 0 
-0.5358267949789941 -0.8443279255020167 -0.8443279255020167 0.5358267949789941 0.385909692685366 0 
-0.5090414157503689 -0.8607420270039451 -0.8607420270039451 0.5090414157503689 0.3894386584074929 0 
-0.4817536741017129 -0.8763066800438649 -0.8763066800438649 0.4817536741017129 0.3928085983518157 0 
-0.4539904997395438 -0.8910065241883695 -0.8910065241883695 0.4539904997395438 0.3975814781324545 0 
-0.4257792915650698 -0.9048270524660209 -0.9048270524660209 0.4257792915650698 0.4004865857857571 0 
-0.3971478906347778 -0.9177546256839824 -0.9177546256839824 0.3971478906347778 0.4046010710391651 0 
-0.3681245526846753 -0.9297764858882525 -0.9297764858882525 0.3681245526846753 0.4092458049858784 0 
-0.3387379202452889 -0.9408807689542263 -0.9408807689542263 0.3387379202452889 0.4144379341887488 0 
-0.3090169943749451 -0.9510565162951543 -0.9510565162951544 0.3090169943749452 0.4189132523449973 0 
-0.2789911060392271 -0.9602936856769437 -0.9602936856769437 0.2789911060392271 0.4242411892237207 0 
-0.2486898871648527 -0.9685831611286316 -0.9685831611286317 0.2486898871648527 0.4300042008252861 0 
-0.2181432413965406 -0.9759167619387479 -0.9759167619387479 0.2181432413965406 0.4356776265162051 0 
-0.187381314585722 -0.9822872507286892 -0.9822872507286892 0.187381314585722 0.4409115843787973 0 
-0.1564344650402284 -0.9876883405951381 -0.9876883405951382 0.1564344650402284 0.4471289043784257 0 
-0.125333233564302 -0.9921147013144781 -0.9921147013144781 0.125333233564302 0.4536439258752309 0 
-0.0941083133185122 -0.9955619646030802 -0.9955619646030802 0.0941083133185122 0.4604863812713428 0 
-0.06279051952931054 -0.9980267284282718 -0.9980267284282718 0.06279051952931054 0.467796126068773 0 
-0.03141075907812563 -0.9995065603657316 -0.9995065603657317 0.03141075907812563 0.4753324467347562 0 
2.480838239228273e-15 -1 -1 -2.480838239228273e-15 0.4838792839249908 0 
0.0314107590781306 -0.9995065603657315 -0.9995065603657315 -0.0314107590781306 0.4920926649985597 0 
0.0627905195293155 -0.9980267284282714 -0.9980267284282714 -0.0627905195293155 0.5001791866897281 0 
0.09410831331851625 -0.9955619646030799 -0.9955619646030799 -0.09410831331851625 0.5090771602831321 0 
0.125333233564306 -0.9921147013144777 -0.9921147013144777 -0.125333233564306 0.5186271792236672 0 
0.1564344650402324 -0.9876883405951374 -0.9876883405951374 -0.1564344650402324 0.5283818296201843 0 
0.187381314585726 -0.9822872507286884 -0.9822872507286885 -0.187381314585726 0.5387836805950397 0 
0.2181432413965446 -0.975916761938747 -0.975916761938747 -0.2181432413965446 0.5497582879136403 0 
0.2486898871648567 -0.9685831611286306 -0.9685831611286306 -0.2486898871648567 0.5616252011598168 0 
0.2789911060392309 -0.9602936856769426 -0.9602936856769426 -0.2789911060392309 0.5723625072733248 0 
0.309016994374949 -0.9510565162951531 -0.9510565162951531 -0.309016994374949 0.5847310905628306 0 
0.3387379202452935 -0.9408807689542247 -0.9408807689542248 -0.3387379202452935 0.5969746007705075 0 
0.3681245526846799 -0.9297764858882507 -0.9297764858882507 -0.3681245526846799 0.6102108097259553 0 
0.3971478906347824 -0.9177546256839804 -0.9177546256839804 -0.3971478906347824 0.6256470070571168 0 
0.4257792915650742 -0.9048270524660188 -0.9048270524660188 -0.4257792915650742 0.6401379694325957 0 
0.4539904997395482 -0.8910065241883671 -0.8910065241883671 -0.4539904997395482 0.655950069511462 0 
0.4817536741017165 -0.8763066800438629 -0.8763066800438629 -0.4817536741017165 0.6713365501221393 0 
0.5090414157503723 -0.860742027003943 -0.8607420270039431 -0.5090414157503724 0.686999604007472 0 
0.5358267949789975 -0.8443279255020145 -0.8443279255020145 -0.5358267949789975 0.7030777500926688 0 
0.562083377852132 -0.8270805742745608 -0.8270805742745608 -0.562083377852132 0.7211333356569403 0 
0.5877852522924744 -0.8090169943749465 -0.8090169943749466 -0.5877852522924745 0.7409736683307619 0 
0.6129070536529776 -0.7901550123756895 -0.7901550123756895 -0.6129070536529776 0.7588339106857619 0 
0.6374239897486906 -0.7705132427757885 -0.7705132427757885 -0.6374239897486906 0.7783777713717367 0 
0.6613118653236533 -0.7501110696304583 -0.7501110696304583 -0.6613118653236533 0.7979812242900651 0 
0.6845471059286899 -0.7289686274214103 -0.7289686274214103 -0.6845471059286899 0.8200256870475983 0 
0.7071067811865487 -0.7071067811865465 -0.7071067811865465 -0.7071067811865487 0.8408409887134357 0 
0.7289686274214124 -0.6845471059286876 -0.6845471059286876 -0.7289686274214124 0.8642388632453007 0 
0.7501110696304604 -0.6613118653236509 -0.6613118653236509 -0.7501110696304604 0.887214067285094 0 
0.7705132427757899 -0.637423989748689 -0.637423989748689 -0.7705132427757899 0.9121081852190353 0 
0.7901550123756909 -0.6129070536529758 -0.6129070536529758 -0.7901550123756909 0.9372470825344361 0 
0.8090169943749478 -0.5877852522924726 -0.5877852522924726 -0.8090169943749478 0.962765093485573 0 